# vtk DataFile Version 3.0
MOAB 5.1.1
ASCII
DATASET UNSTRUCTURED_GRID
POINTS 128 double
0 0 0.01
0 0 0
0 1 0.01
0 1 0
1 0 0.01
1 0 0
1 1 0.01
1 1 0
0 0.1428571429 0.01
0 0.2857142857 0.01
0 0.4285714286 0.01
0 0.5714285714 0.01
0 0.7142857143 0.01
0 0.8571428571 0.01
0 0.1428571429 0
0 0.2857142857 0
0 0.4285714286 0
0 0.5714285714 0
0 0.7142857143 0
0 0.8571428571 0
1 0.1428571429 0.01
1 0.2857142857 0.01
1 0.4285714286 0.01
1 0.5714285714 0.01
1 0.7142857143 0.01
1 0.8571428571 0.01
1 0.1428571429 0
1 0.2857142857 0
1 0.4285714286 0
1 0.5714285714 0
1 0.7142857143 0
1 0.8571428571 0
0.1428571429 0 0
0.2857142857 0 0
0.4285714286 0 0
0.5714285714 0 0
0.7142857143 0 0
0.8571428571 0 0
0.1428571429 0 0.01
0.2857142857 0 0.01
0.4285714286 0 0.01
0.5714285714 0 0.01
0.7142857143 0 0.01
0.8571428571 0 0.01
0.1428571429 1 0
0.2857142857 1 0
0.4285714286 1 0
0.5714285714 1 0
0.7142857143 1 0
0.8571428571 1 0
0.1428571429 1 0.01
0.2857142857 1 0.01
0.4285714286 1 0.01
0.5714285714 1 0.01
0.7142857143 1 0.01
0.8571428571 1 0.01
0.1428571429 0.1428571429 0
0.2857142857 0.1428571429 0
0.4285714286 0.1428571429 0
0.5714285714 0.1428571429 0
0.7142857143 0.1428571429 0
0.8571428571 0.1428571429 0
0.1428571429 0.2857142857 0
0.2857142857 0.2857142857 0
0.4285714286 0.2857142857 0
0.5714285714 0.2857142857 0
0.7142857143 0.2857142857 0
0.8571428571 0.2857142857 0
0.1428571429 0.4285714286 0
0.2857142857 0.4285714286 0
0.4285714286 0.4285714286 0
0.5714285714 0.4285714286 0
0.7142857143 0.4285714286 0
0.8571428571 0.4285714286 0
0.1428571429 0.5714285714 0
0.2857142857 0.5714285714 0
0.4285714286 0.5714285714 0
0.5714285714 0.5714285714 0
0.7142857143 0.5714285714 0
0.8571428571 0.5714285714 0
0.1428571429 0.7142857143 0
0.2857142857 0.7142857143 0
0.4285714286 0.7142857143 0
0.5714285714 0.7142857143 0
0.7142857143 0.7142857143 0
0.8571428571 0.7142857143 0
0.1428571429 0.8571428571 0
0.2857142857 0.8571428571 0
0.4285714286 0.8571428571 0
0.5714285714 0.8571428571 0
0.7142857143 0.8571428571 0
0.8571428571 0.8571428571 0
0.1428571429 0.1428571429 0.01
0.2857142857 0.1428571429 0.01
0.4285714286 0.1428571429 0.01
0.5714285714 0.1428571429 0.01
0.7142857143 0.1428571429 0.01
0.8571428571 0.1428571429 0.01
0.1428571429 0.2857142857 0.01
0.2857142857 0.2857142857 0.01
0.4285714286 0.2857142857 0.01
0.5714285714 0.2857142857 0.01
0.7142857143 0.2857142857 0.01
0.8571428571 0.2857142857 0.01
0.1428571429 0.4285714286 0.01
0.2857142857 0.4285714286 0.01
0.4285714286 0.4285714286 0.01
0.5714285714 0.4285714286 0.01
0.7142857143 0.4285714286 0.01
0.8571428571 0.4285714286 0.01
0.1428571429 0.5714285714 0.01
0.2857142857 0.5714285714 0.01
0.4285714286 0.5714285714 0.01
0.5714285714 0.5714285714 0.01
0.7142857143 0.5714285714 0.01
0.8571428571 0.5714285714 0.01
0.1428571429 0.7142857143 0.01
0.2857142857 0.7142857143 0.01
0.4285714286 0.7142857143 0.01
0.5714285714 0.7142857143 0.01
0.7142857143 0.7142857143 0.01
0.8571428571 0.7142857143 0.01
0.1428571429 0.8571428571 0.01
0.2857142857 0.8571428571 0.01
0.4285714286 0.8571428571 0.01
0.5714285714 0.8571428571 0.01
0.7142857143 0.8571428571 0.01
0.8571428571 0.8571428571 0.01
CELLS 49 441
8 8 0 1 14 92 38 32 56
8 92 38 32 56 93 39 33 57
8 93 39 33 57 94 40 34 58
8 94 40 34 58 95 41 35 59
8 95 41 35 59 96 42 36 60
8 96 42 36 60 97 43 37 61
8 97 43 37 61 20 4 5 26
8 9 8 14 15 98 92 56 62
8 98 92 56 62 99 93 57 63
8 99 93 57 63 100 94 58 64
8 100 94 58 64 101 95 59 65
8 101 95 59 65 102 96 60 66
8 102 96 60 66 103 97 61 67
8 103 97 61 67 21 20 26 27
8 10 9 15 16 104 98 62 68
8 104 98 62 68 105 99 63 69
8 105 99 63 69 106 100 64 70
8 106 100 64 70 107 101 65 71
8 107 101 65 71 108 102 66 72
8 108 102 66 72 109 103 67 73
8 109 103 67 73 22 21 27 28
8 11 10 16 17 110 104 68 74
8 110 104 68 74 111 105 69 75
8 111 105 69 75 112 106 70 76
8 112 106 70 76 113 107 71 77
8 113 107 71 77 114 108 72 78
8 114 108 72 78 115 109 73 79
8 115 109 73 79 23 22 28 29
8 12 11 17 18 116 110 74 80
8 116 110 74 80 117 111 75 81
8 117 111 75 81 118 112 76 82
8 118 112 76 82 119 113 77 83
8 119 113 77 83 120 114 78 84
8 120 114 78 84 121 115 79 85
8 121 115 79 85 24 23 29 30
8 13 12 18 19 122 116 80 86
8 122 116 80 86 123 117 81 87
8 123 117 81 87 124 118 82 88
8 124 118 82 88 125 119 83 89
8 125 119 83 89 126 120 84 90
8 126 120 84 90 127 121 85 91
8 127 121 85 91 25 24 30 31
8 2 13 19 3 50 122 86 44
8 50 122 86 44 51 123 87 45
8 51 123 87 45 52 124 88 46
8 52 124 88 46 53 125 89 47
8 53 125 89 47 54 126 90 48
8 54 126 90 48 55 127 91 49
8 55 127 91 49 6 25 31 7
CELL_TYPES 49
12
12
12
12
12
12
12
12
12
12
12
12
12
12
12
12
12
12
12
12
12
12
12
12
12
12
12
12
12
12
12
12
12
12
12
12
12
12
12
12
12
12
12
12
12
12
12
12
12
POINT_DATA 128
SCALARS GLOBAL_ID int 1
LOOKUP_TABLE default
0 
1 
2 
3 
4 
5 
6 
7 
8 
9 
10 
11 
12 
13 
14 
15 
16 
17 
18 
19 
20 
21 
22 
23 
24 
25 
26 
27 
28 
29 
30 
31 
32 
33 
34 
35 
36 
37 
38 
39 
40 
41 
42 
43 
44 
45 
46 
47 
48 
49 
50 
51 
52 
53 
54 
55 
56 
57 
58 
59 
60 
61 
62 
63 
64 
65 
66 
67 
68 
69 
70 
71 
72 
73 
74 
75 
76 
77 
78 
79 
80 
81 
82 
83 
84 
85 
86 
87 
88 
89 
90 
91 
92 
93 
94 
95 
96 
97 
98 
99 
100 
101 
102 
103 
104 
105 
106 
107 
108 
109 
110 
111 
112 
113 
114 
115 
116 
117 
118 
119 
120 
121 
122 
123 
124 
125 
126 
127 
CELL_DATA 49
SCALARS GLOBAL_ID int 1
LOOKUP_TABLE default
0 
1 
2 
3 
4 
5 
6 
7 
8 
9 
10 
11 
12 
13 
14 
15 
16 
17 
18 
19 
20 
21 
22 
23 
24 
25 
26 
27 
28 
29 
30 
31 
32 
33 
34 
35 
36 
37 
38 
39 
40 
41 
42 
43 
44 
45 
46 
47 
48 
TENSORS permeability double
15 15 15 15 15 15 15 15 15 
15 15 15 15 15 15 15 15 15 
15 15 15 15 15 15 15 15 15 
15 15 15 15 15 15 15 15 15 
100 100 100 100 100 100 100 100 100 
100 100 100 100 100 100 100 100 100 
100 100 100 100 100 100 100 100 100 
15 15 15 15 15 15 15 15 15 
15 15 15 15 15 15 15 15 15 
15 15 15 15 15 15 15 15 15 
15 15 15 15 15 15 15 15 15 
100 100 100 100 100 100 100 100 100 
100 100 100 100 100 100 100 100 100 
100 100 100 100 100 100 100 100 100 
15 15 15 15 15 15 15 15 15 
15 15 15 15 15 15 15 15 15 
15 15 15 15 15 15 15 15 15 
15 15 15 15 15 15 15 15 15 
100 100 100 100 100 100 100 100 100 
100 100 100 100 100 100 100 100 100 
100 100 100 100 100 100 100 100 100 
15 15 15 15 15 15 15 15 15 
15 15 15 15 15 15 15 15 15 
15 15 15 15 15 15 15 15 15 
15 15 15 15 15 15 15 15 15 
100 100 100 100 100 100 100 100 100 
100 100 100 100 100 100 100 100 100 
100 100 100 100 100 100 100 100 100 
15 15 15 15 15 15 15 15 15 
15 15 15 15 15 15 15 15 15 
15 15 15 15 15 15 15 15 15 
15 15 15 15 15 15 15 15 15 
100 100 100 100 100 100 100 100 100 
100 100 100 100 100 100 100 100 100 
100 100 100 100 100 100 100 100 100 
15 15 15 15 15 15 15 15 15 
15 15 15 15 15 15 15 15 15 
15 15 15 15 15 15 15 15 15 
15 15 15 15 15 15 15 15 15 
100 100 100 100 100 100 100 100 100 
100 100 100 100 100 100 100 100 100 
100 100 100 100 100 100 100 100 100 
15 15 15 15 15 15 15 15 15 
15 15 15 15 15 15 15 15 15 
15 15 15 15 15 15 15 15 15 
15 15 15 15 15 15 15 15 15 
100 100 100 100 100 100 100 100 100 
100 100 100 100 100 100 100 100 100 
100 100 100 100 100 100 100 100 100 
SCALARS flux double 1
LOOKUP_TABLE default
30 
0 
0 
0 
0 
0 
60 
30 
0 
0 
0 
0 
0 
60 
30 
0 
0 
0 
0 
0 
60 
30 
0 
0 
0 
0 
0 
60 
30 
0 
0 
0 
0 
0 
60 
30 
0 
0 
0 
0 
0 
60 
30 
0 
0 
0 
0 
0 
60 
SCALARS nu_sol double 1
LOOKUP_TABLE default
92.13483146 
76.40449438 
60.6741573 
44.94382022 
35.8988764 
33.53932584 
31.17977528 
92.13483146 
76.40449438 
60.6741573 
44.94382022 
35.8988764 
33.53932584 
31.17977528 
92.13483146 
76.40449438 
60.6741573 
44.94382022 
35.8988764 
33.53932584 
31.17977528 
92.13483146 
76.40449438 
60.6741573 
44.94382022 
35.8988764 
33.53932584 
31.17977528 
92.13483146 
76.40449438 
60.6741573 
44.94382022 
35.8988764 
33.53932584 
31.17977528 
92.13483146 
76.40449438 
60.6741573 
44.94382022 
35.8988764 
33.53932584 
31.17977528 
92.13483146 
76.40449438 
60.6741573 
44.94382022 
35.8988764 
33.53932584 
31.17977528 
SCALARS an_sol double 1
LOOKUP_TABLE default
98.69565217 
96.08695652 
93.47826087 
90.86956522 
73.47826087 
56.08695652 
38.69565217 
98.69565217 
96.08695652 
93.47826087 
90.86956522 
73.47826087 
56.08695652 
38.69565217 
98.69565217 
96.08695652 
93.47826087 
90.86956522 
73.47826087 
56.08695652 
38.69565217 
98.69565217 
96.08695652 
93.47826087 
90.86956522 
73.47826087 
56.08695652 
38.69565217 
98.69565217 
96.08695652 
93.47826087 
90.86956522 
73.47826087 
56.08695652 
38.69565217 
98.69565217 
96.08695652 
93.47826087 
90.86956522 
73.47826087 
56.08695652 
38.69565217 
98.69565217 
96.08695652 
93.47826087 
90.86956522 
73.47826087 
56.08695652 
38.69565217 
SCALARS error double 1
LOOKUP_TABLE default
0.4361323674 
4.031757586 
11.51186598 
23.21100633 
19.2194279 
9.064418552 
1.459812726 
0.4361323674 
4.031757586 
11.51186598 
23.21100633 
19.2194279 
9.064418552 
1.459812726 
0.4361323674 
4.031757586 
11.51186598 
23.21100633 
19.2194279 
9.064418552 
1.459812726 
0.4361323674 
4.031757586 
11.51186598 
23.21100633 
19.2194279 
9.064418552 
1.459812726 
0.4361323674 
4.031757586 
11.51186598 
23.21100633 
19.2194279 
9.064418552 
1.459812726 
0.4361323674 
4.031757586 
11.51186598 
23.21100633 
19.2194279 
9.064418552 
1.459812726 
0.4361323674 
4.031757586 
11.51186598 
23.21100633 
19.2194279 
9.064418552 
1.459812726 
