# vtk DataFile Version 3.0
MOAB 5.1.1
ASCII
DATASET UNSTRUCTURED_GRID
POINTS 16 double
0 0 0.2
0 0 0
0 0.2 0.2
0 0.2 0
600 0 0.2
600 0 0
600 0.2 0.2
600 0.2 0
200 0 0
400 0 0
200 0 0.2
400 0 0.2
200 0.2 0
400 0.2 0
200 0.2 0.2
400 0.2 0.2
CELLS 3 27
8 2 0 1 3 14 10 8 12
8 14 10 8 12 15 11 9 13
8 15 11 9 13 6 4 5 7
CELL_TYPES 3
12
12
12
POINT_DATA 16
SCALARS GLOBAL_ID int 1
LOOKUP_TABLE default
0 
1 
2 
3 
4 
5 
6 
7 
8 
9 
10 
11 
12 
13 
14 
15 
CELL_DATA 3
SCALARS GLOBAL_ID int 1
LOOKUP_TABLE default
0 
1 
2 
TENSORS permeability double
1 0 0 0 1 0 0 0 1 
1 0 0 0 1 0 0 0 1 
1 0 0 0 1 0 0 0 1 
SCALARS flux double 1
LOOKUP_TABLE default
995190.402 
26985590.4 
124975990.4 
SCALARS nu_sol double 1
LOOKUP_TABLE default
1000390.32 
26999981.77 
124956399.1 
SCALARS an_sol double 1
LOOKUP_TABLE default
1000000.002 
27000000 
125000000 
SCALARS error double 1
LOOKUP_TABLE default
0.1523483667 
1.231513436e-05 
15.20829631 
