# vtk DataFile Version 3.0
MOAB 5.1.1
ASCII
DATASET UNSTRUCTURED_GRID
POINTS 1000 double
0 0 1
0 0 0
0 1 1
0 1 0
1 0 1
1 0 0
1 1 1
1 1 0
0 0 0.1111111111
0 0 0.2222222222
0 0 0.3333333333
0 0 0.4444444444
0 0 0.5555555556
0 0 0.6666666667
0 0 0.7777777778
0 0 0.8888888889
0 0.1111111111 1
0 0.2222222222 1
0 0.3333333333 1
0 0.4444444444 1
0 0.5555555556 1
0 0.6666666667 1
0 0.7777777778 1
0 0.8888888889 1
0 1 0.1111111111
0 1 0.2222222222
0 1 0.3333333333
0 1 0.4444444444
0 1 0.5555555556
0 1 0.6666666667
0 1 0.7777777778
0 1 0.8888888889
0 0.1111111111 0
0 0.2222222222 0
0 0.3333333333 0
0 0.4444444444 0
0 0.5555555556 0
0 0.6666666667 0
0 0.7777777778 0
0 0.8888888889 0
1 0 0.1111111111
1 0 0.2222222222
1 0 0.3333333333
1 0 0.4444444444
1 0 0.5555555556
1 0 0.6666666667
1 0 0.7777777778
1 0 0.8888888889
1 0.1111111111 1
1 0.2222222222 1
1 0.3333333333 1
1 0.4444444444 1
1 0.5555555556 1
1 0.6666666667 1
1 0.7777777778 1
1 0.8888888889 1
1 1 0.1111111111
1 1 0.2222222222
1 1 0.3333333333
1 1 0.4444444444
1 1 0.5555555556
1 1 0.6666666667
1 1 0.7777777778
1 1 0.8888888889
1 0.1111111111 0
1 0.2222222222 0
1 0.3333333333 0
1 0.4444444444 0
1 0.5555555556 0
1 0.6666666667 0
1 0.7777777778 0
1 0.8888888889 0
0.1111111111 0 0
0.2222222222 0 0
0.3333333333 0 0
0.4444444444 0 0
0.5555555556 0 0
0.6666666667 0 0
0.7777777778 0 0
0.8888888889 0 0
0.1111111111 0 1
0.2222222222 0 1
0.3333333333 0 1
0.4444444444 0 1
0.5555555556 0 1
0.6666666667 0 1
0.7777777778 0 1
0.8888888889 0 1
0.1111111111 1 0
0.2222222222 1 0
0.3333333333 1 0
0.4444444444 1 0
0.5555555556 1 0
0.6666666667 1 0
0.7777777778 1 0
0.8888888889 1 0
0.1111111111 1 1
0.2222222222 1 1
0.3333333333 1 1
0.4444444444 1 1
0.5555555556 1 1
0.6666666667 1 1
0.7777777778 1 1
0.8888888889 1 1
0 0.1111111111 0.1111111111
0 0.2222222222 0.1111111111
0 0.3333333333 0.1111111111
0 0.4444444444 0.1111111111
0 0.5555555556 0.1111111111
0 0.6666666667 0.1111111111
0 0.7777777778 0.1111111111
0 0.8888888889 0.1111111111
0 0.1111111111 0.2222222222
0 0.2222222222 0.2222222222
0 0.3333333333 0.2222222222
0 0.4444444444 0.2222222222
0 0.5555555556 0.2222222222
0 0.6666666667 0.2222222222
0 0.7777777778 0.2222222222
0 0.8888888889 0.2222222222
0 0.1111111111 0.3333333333
0 0.2222222222 0.3333333333
0 0.3333333333 0.3333333333
0 0.4444444444 0.3333333333
0 0.5555555556 0.3333333333
0 0.6666666667 0.3333333333
0 0.7777777778 0.3333333333
0 0.8888888889 0.3333333333
0 0.1111111111 0.4444444444
0 0.2222222222 0.4444444444
0 0.3333333333 0.4444444444
0 0.4444444444 0.4444444444
0 0.5555555556 0.4444444444
0 0.6666666667 0.4444444444
0 0.7777777778 0.4444444444
0 0.8888888889 0.4444444444
0 0.1111111111 0.5555555556
0 0.2222222222 0.5555555556
0 0.3333333333 0.5555555556
0 0.4444444444 0.5555555556
0 0.5555555556 0.5555555556
0 0.6666666667 0.5555555556
0 0.7777777778 0.5555555556
0 0.8888888889 0.5555555556
0 0.1111111111 0.6666666667
0 0.2222222222 0.6666666667
0 0.3333333333 0.6666666667
0 0.4444444444 0.6666666667
0 0.5555555556 0.6666666667
0 0.6666666667 0.6666666667
0 0.7777777778 0.6666666667
0 0.8888888889 0.6666666667
0 0.1111111111 0.7777777778
0 0.2222222222 0.7777777778
0 0.3333333333 0.7777777778
0 0.4444444444 0.7777777778
0 0.5555555556 0.7777777778
0 0.6666666667 0.7777777778
0 0.7777777778 0.7777777778
0 0.8888888889 0.7777777778
0 0.1111111111 0.8888888889
0 0.2222222222 0.8888888889
0 0.3333333333 0.8888888889
0 0.4444444444 0.8888888889
0 0.5555555556 0.8888888889
0 0.6666666667 0.8888888889
0 0.7777777778 0.8888888889
0 0.8888888889 0.8888888889
1 0.1111111111 0.1111111111
1 0.2222222222 0.1111111111
1 0.3333333333 0.1111111111
1 0.4444444444 0.1111111111
1 0.5555555556 0.1111111111
1 0.6666666667 0.1111111111
1 0.7777777778 0.1111111111
1 0.8888888889 0.1111111111
1 0.1111111111 0.2222222222
1 0.2222222222 0.2222222222
1 0.3333333333 0.2222222222
1 0.4444444444 0.2222222222
1 0.5555555556 0.2222222222
1 0.6666666667 0.2222222222
1 0.7777777778 0.2222222222
1 0.8888888889 0.2222222222
1 0.1111111111 0.3333333333
1 0.2222222222 0.3333333333
1 0.3333333333 0.3333333333
1 0.4444444444 0.3333333333
1 0.5555555556 0.3333333333
1 0.6666666667 0.3333333333
1 0.7777777778 0.3333333333
1 0.8888888889 0.3333333333
1 0.1111111111 0.4444444444
1 0.2222222222 0.4444444444
1 0.3333333333 0.4444444444
1 0.4444444444 0.4444444444
1 0.5555555556 0.4444444444
1 0.6666666667 0.4444444444
1 0.7777777778 0.4444444444
1 0.8888888889 0.4444444444
1 0.1111111111 0.5555555556
1 0.2222222222 0.5555555556
1 0.3333333333 0.5555555556
1 0.4444444444 0.5555555556
1 0.5555555556 0.5555555556
1 0.6666666667 0.5555555556
1 0.7777777778 0.5555555556
1 0.8888888889 0.5555555556
1 0.1111111111 0.6666666667
1 0.2222222222 0.6666666667
1 0.3333333333 0.6666666667
1 0.4444444444 0.6666666667
1 0.5555555556 0.6666666667
1 0.6666666667 0.6666666667
1 0.7777777778 0.6666666667
1 0.8888888889 0.6666666667
1 0.1111111111 0.7777777778
1 0.2222222222 0.7777777778
1 0.3333333333 0.7777777778
1 0.4444444444 0.7777777778
1 0.5555555556 0.7777777778
1 0.6666666667 0.7777777778
1 0.7777777778 0.7777777778
1 0.8888888889 0.7777777778
1 0.1111111111 0.8888888889
1 0.2222222222 0.8888888889
1 0.3333333333 0.8888888889
1 0.4444444444 0.8888888889
1 0.5555555556 0.8888888889
1 0.6666666667 0.8888888889
1 0.7777777778 0.8888888889
1 0.8888888889 0.8888888889
0.1111111111 0 0.1111111111
0.1111111111 0 0.2222222222
0.1111111111 0 0.3333333333
0.1111111111 0 0.4444444444
0.1111111111 0 0.5555555556
0.1111111111 0 0.6666666667
0.1111111111 0 0.7777777778
0.1111111111 0 0.8888888889
0.2222222222 0 0.1111111111
0.2222222222 0 0.2222222222
0.2222222222 0 0.3333333333
0.2222222222 0 0.4444444444
0.2222222222 0 0.5555555556
0.2222222222 0 0.6666666667
0.2222222222 0 0.7777777778
0.2222222222 0 0.8888888889
0.3333333333 0 0.1111111111
0.3333333333 0 0.2222222222
0.3333333333 0 0.3333333333
0.3333333333 0 0.4444444444
0.3333333333 0 0.5555555556
0.3333333333 0 0.6666666667
0.3333333333 0 0.7777777778
0.3333333333 0 0.8888888889
0.4444444444 0 0.1111111111
0.4444444444 0 0.2222222222
0.4444444444 0 0.3333333333
0.4444444444 0 0.4444444444
0.4444444444 0 0.5555555556
0.4444444444 0 0.6666666667
0.4444444444 0 0.7777777778
0.4444444444 0 0.8888888889
0.5555555556 0 0.1111111111
0.5555555556 0 0.2222222222
0.5555555556 0 0.3333333333
0.5555555556 0 0.4444444444
0.5555555556 0 0.5555555556
0.5555555556 0 0.6666666667
0.5555555556 0 0.7777777778
0.5555555556 0 0.8888888889
0.6666666667 0 0.1111111111
0.6666666667 0 0.2222222222
0.6666666667 0 0.3333333333
0.6666666667 0 0.4444444444
0.6666666667 0 0.5555555556
0.6666666667 0 0.6666666667
0.6666666667 0 0.7777777778
0.6666666667 0 0.8888888889
0.7777777778 0 0.1111111111
0.7777777778 0 0.2222222222
0.7777777778 0 0.3333333333
0.7777777778 0 0.4444444444
0.7777777778 0 0.5555555556
0.7777777778 0 0.6666666667
0.7777777778 0 0.7777777778
0.7777777778 0 0.8888888889
0.8888888889 0 0.1111111111
0.8888888889 0 0.2222222222
0.8888888889 0 0.3333333333
0.8888888889 0 0.4444444444
0.8888888889 0 0.5555555556
0.8888888889 0 0.6666666667
0.8888888889 0 0.7777777778
0.8888888889 0 0.8888888889
0.1111111111 1 0.1111111111
0.1111111111 1 0.2222222222
0.1111111111 1 0.3333333333
0.1111111111 1 0.4444444444
0.1111111111 1 0.5555555556
0.1111111111 1 0.6666666667
0.1111111111 1 0.7777777778
0.1111111111 1 0.8888888889
0.2222222222 1 0.1111111111
0.2222222222 1 0.2222222222
0.2222222222 1 0.3333333333
0.2222222222 1 0.4444444444
0.2222222222 1 0.5555555556
0.2222222222 1 0.6666666667
0.2222222222 1 0.7777777778
0.2222222222 1 0.8888888889
0.3333333333 1 0.1111111111
0.3333333333 1 0.2222222222
0.3333333333 1 0.3333333333
0.3333333333 1 0.4444444444
0.3333333333 1 0.5555555556
0.3333333333 1 0.6666666667
0.3333333333 1 0.7777777778
0.3333333333 1 0.8888888889
0.4444444444 1 0.1111111111
0.4444444444 1 0.2222222222
0.4444444444 1 0.3333333333
0.4444444444 1 0.4444444444
0.4444444444 1 0.5555555556
0.4444444444 1 0.6666666667
0.4444444444 1 0.7777777778
0.4444444444 1 0.8888888889
0.5555555556 1 0.1111111111
0.5555555556 1 0.2222222222
0.5555555556 1 0.3333333333
0.5555555556 1 0.4444444444
0.5555555556 1 0.5555555556
0.5555555556 1 0.6666666667
0.5555555556 1 0.7777777778
0.5555555556 1 0.8888888889
0.6666666667 1 0.1111111111
0.6666666667 1 0.2222222222
0.6666666667 1 0.3333333333
0.6666666667 1 0.4444444444
0.6666666667 1 0.5555555556
0.6666666667 1 0.6666666667
0.6666666667 1 0.7777777778
0.6666666667 1 0.8888888889
0.7777777778 1 0.1111111111
0.7777777778 1 0.2222222222
0.7777777778 1 0.3333333333
0.7777777778 1 0.4444444444
0.7777777778 1 0.5555555556
0.7777777778 1 0.6666666667
0.7777777778 1 0.7777777778
0.7777777778 1 0.8888888889
0.8888888889 1 0.1111111111
0.8888888889 1 0.2222222222
0.8888888889 1 0.3333333333
0.8888888889 1 0.4444444444
0.8888888889 1 0.5555555556
0.8888888889 1 0.6666666667
0.8888888889 1 0.7777777778
0.8888888889 1 0.8888888889
0.1111111111 0.1111111111 0
0.2222222222 0.1111111111 0
0.3333333333 0.1111111111 0
0.4444444444 0.1111111111 0
0.5555555556 0.1111111111 0
0.6666666667 0.1111111111 0
0.7777777778 0.1111111111 0
0.8888888889 0.1111111111 0
0.1111111111 0.2222222222 0
0.2222222222 0.2222222222 0
0.3333333333 0.2222222222 0
0.4444444444 0.2222222222 0
0.5555555556 0.2222222222 0
0.6666666667 0.2222222222 0
0.7777777778 0.2222222222 0
0.8888888889 0.2222222222 0
0.1111111111 0.3333333333 0
0.2222222222 0.3333333333 0
0.3333333333 0.3333333333 0
0.4444444444 0.3333333333 0
0.5555555556 0.3333333333 0
0.6666666667 0.3333333333 0
0.7777777778 0.3333333333 0
0.8888888889 0.3333333333 0
0.1111111111 0.4444444444 0
0.2222222222 0.4444444444 0
0.3333333333 0.4444444444 0
0.4444444444 0.4444444444 0
0.5555555556 0.4444444444 0
0.6666666667 0.4444444444 0
0.7777777778 0.4444444444 0
0.8888888889 0.4444444444 0
0.1111111111 0.5555555556 0
0.2222222222 0.5555555556 0
0.3333333333 0.5555555556 0
0.4444444444 0.5555555556 0
0.5555555556 0.5555555556 0
[...]
POINT_DATA 1000
SCALARS GLOBAL_ID int 1
LOOKUP_TABLE default
0 
1 
2 
3 
4 
5 
6 
7 
8 
9 
10 
11 
12 
13 
14 
15 
16 
17 
18 
19 
20 
21 
22 
23 
24 
25 
26 
27 
28 
29 
30 
31 
32 
33 
34 
35 
36 
37 
38 
39 
40 
41 
42 
43 
44 
45 
46 
47 
48 
49 
50 
51 
52 
53 
54 
55 
56 
57 
58 
59 
60 
61 
62 
63 
64 
65 
66 
67 
68 
69 
70 
71 
72 
73 
74 
75 
76 
77 
78 
79 
80 
81 
82 
83 
84 
85 
86 
87 
88 
89 
90 
91 
92 
93 
94 
95 
96 
97 
98 
99 
100 
101 
102 
103 
104 
105 
106 
107 
108 
109 
110 
111 
112 
113 
114 
115 
116 
117 
118 
119 
120 
121 
122 
123 
124 
125 
126 
127 
128 
129 
130 
131 
132 
133 
134 
135 
136 
137 
138 
139 
140 
141 
142 
143 
144 
145 
146 
147 
148 
149 
150 
151 
152 
153 
154 
155 
156 
157 
158 
159 
160 
161 
162 
163 
164 
165 
166 
167 
168 
169 
170 
171 
172 
173 
174 
175 
176 
177 
178 
179 
180 
181 
182 
183 
184 
185 
186 
187 
188 
189 
190 
191 
192 
193 
194 
195 
196 
197 
198 
199 
200 
201 
202 
203 
204 
205 
206 
207 
208 
209 
210 
211 
212 
213 
214 
215 
216 
217 
218 
219 
220 
221 
222 
223 
224 
225 
226 
227 
228 
229 
230 
231 
232 
233 
234 
235 
236 
237 
238 
239 
240 
241 
242 
243 
244 
245 
246 
247 
248 
249 
250 
251 
252 
253 
254 
255 
256 
257 
258 
259 
260 
261 
262 
263 
264 
265 
266 
267 
268 
269 
270 
271 
272 
273 
274 
275 
276 
277 
278 
279 
280 
281 
282 
283 
284 
285 
286 
287 
288 
289 
290 
291 
292 
293 
294 
295 
296 
297 
298 
299 
300 
301 
302 
303 
304 
305 
306 
307 
308 
309 
310 
311 
312 
313 
314 
315 
316 
317 
318 
319 
320 
321 
322 
323 
324 
325 
326 
327 
328 
329 
330 
331 
332 
333 
334 
335 
336 
337 
338 
339 
340 
341 
342 
343 
344 
345 
346 
347 
348 
349 
350 
351 
352 
353 
354 
355 
356 
357 
358 
359 
360 
361 
362 
363 
364 
365 
366 
367 
368 
369 
370 
371 
372 
373 
374 
375 
376 
377 
378 
379 
380 
381 
382 
383 
384 
385 
386 
387 
388 
389 
390 
391 
392 
393 
394 
395 
396 
397 
398 
399 
400 
401 
402 
403 
404 
405 
406 
407 
408 
409 
410 
411 
412 
413 
414 
415 
416 
417 
418 
419 
420 
421 
422 
423 
424 
425 
426 
427 
428 
429 
430 
431 
432 
433 
434 
435 
436 
437 
438 
439 
440 
441 
442 
443 
444 
445 
446 
447 
448 
449 
450 
451 
452 
453 
454 
455 
456 
457 
458 
459 
460 
461 
462 
463 
464 
465 
466 
467 
468 
469 
470 
471 
472 
473 
474 
475 
476 
477 
478 
479 
480 
481 
482 
483 
484 
485 
486 
487 
488 
489 
490 
491 
492 
493 
494 
495 
496 
497 
498 
499 
500 
501 
502 
503 
504 
505 
506 
507 
508 
509 
510 
511 
512 
513 
514 
515 
516 
517 
518 
519 
520 
521 
522 
523 
524 
525 
526 
527 
528 
529 
530 
531 
532 
533 
534 
535 
536 
537 
538 
539 
540 
541 
542 
543 
544 
545 
546 
547 
548 
549 
550 
551 
552 
553 
554 
555 
556 
557 
558 
559 
560 
561 
562 
563 
564 
565 
566 
567 
568 
569 
570 
571 
572 
573 
574 
575 
576 
577 
578 
579 
580 
581 
582 
583 
584 
585 
586 
587 
588 
589 
590 
591 
592 
593 
594 
595 
596 
597 
598 
599 
600 
601 
602 
603 
604 
605 
606 
607 
608 
609 
610 
611 
612 
613 
614 
615 
616 
617 
618 
619 
620 
621 
622 
623 
624 
625 
626 
627 
628 
629 
630 
631 
632 
633 
634 
635 
636 
637 
638 
639 
640 
641 
642 
643 
644 
645 
646 
647 
648 
649 
650 
651 
652 
653 
654 
655 
656 
657 
658 
659 
660 
661 
662 
663 
664 
665 
666 
667 
668 
669 
670 
671 
672 
673 
674 
675 
676 
677 
678 
679 
680 
681 
682 
683 
684 
685 
686 
687 
688 
689 
690 
691 
692 
693 
694 
695 
696 
697 
698 
699 
700 
701 
702 
703 
704 
705 
706 
707 
708 
709 
710 
711 
712 
713 
714 
715 
716 
717 
718 
719 
720 
721 
722 
723 
724 
725 
726 
727 
728 
729 
730 
731 
732 
733 
734 
735 
736 
737 
738 
739 
740 
741 
742 
743 
744 
745 
746 
747 
748 
749 
750 
751 
752 
753 
754 
755 
756 
757 
758 
759 
760 
761 
762 
763 
764 
765 
766 
767 
768 
769 
770 
771 
772 
773 
774 
775 
776 
777 
778 
779 
780 
781 
782 
783 
784 
785 
786 
787 
788 
789 
790 
791 
792 
793 
794 
795 
796 
797 
798 
799 
800 
801 
802 
803 
804 
805 
806 
807 
808 
809 
810 
811 
812 
813 
814 
815 
816 
817 
818 
819 
820 
821 
822 
823 
824 
825 
826 
827 
828 
829 
830 
831 
832 
833 
834 
835 
836 
837 
838 
839 
840 
841 
842 
843 
844 
845 
846 
847 
848 
849 
850 
851 
852 
853 
854 
855 
856 
857 
858 
859 
860 
861 
862 
863 
864 
865 
866 
867 
868 
869 
870 
871 
872 
873 
874 
875 
876 
877 
878 
879 
880 
881 
882 
883 
884 
885 
886 
887 
888 
889 
890 
891 
892 
893 
894 
895 
896 
897 
898 
899 
900 
901 
902 
903 
904 
905 
906 
907 
908 
909 
910 
911 
912 
913 
914 
915 
916 
917 
918 
919 
920 
921 
922 
923 
924 
925 
926 
927 
928 
929 
930 
931 
932 
933 
934 
935 
936 
937 
938 
939 
940 
941 
942 
943 
944 
945 
946 
947 
948 
949 
950 
951 
952 
953 
954 
955 
956 
957 
958 
959 
960 
961 
962 
963 
964 
965 
966 
967 
968 
969 
970 
971 
972 
973 
974 
975 
976 
977 
978 
979 
980 
981 
982 
983 
984 
985 
986 
987 
988 
989 
990 
991 
992 
993 
994 
995 
996 
997 
998 
999 
CELL_DATA 729
SCALARS GLOBAL_ID int 1
LOOKUP_TABLE default
0 
1 
2 
3 
4 
5 
6 
7 
8 
9 
10 
11 
12 
13 
14 
15 
16 
17 
18 
19 
20 
21 
22 
23 
24 
25 
26 
27 
28 
29 
30 
31 
32 
33 
34 
35 
36 
37 
38 
39 
40 
41 
42 
43 
44 
45 
46 
47 
48 
49 
50 
51 
52 
53 
54 
55 
56 
57 
58 
59 
60 
61 
62 
63 
64 
65 
66 
67 
68 
69 
70 
71 
72 
73 
74 
75 
76 
77 
78 
79 
80 
81 
82 
83 
84 
85 
86 
87 
88 
89 
90 
91 
92 
93 
94 
95 
96 
97 
98 
99 
100 
101 
102 
103 
104 
105 
106 
107 
108 
109 
110 
111 
112 
113 
114 
115 
116 
117 
118 
119 
120 
121 
122 
123 
124 
125 
126 
127 
128 
129 
130 
131 
132 
133 
134 
135 
136 
137 
138 
139 
140 
141 
142 
143 
144 
145 
146 
147 
148 
149 
150 
151 
152 
153 
154 
155 
156 
157 
158 
159 
160 
161 
162 
163 
164 
165 
166 
167 
168 
169 
170 
171 
172 
173 
174 
175 
176 
177 
178 
179 
180 
181 
182 
183 
184 
185 
186 
187 
188 
189 
190 
191 
192 
193 
194 
195 
196 
197 
198 
199 
200 
201 
202 
203 
204 
205 
206 
207 
208 
209 
210 
211 
212 
213 
214 
215 
216 
217 
218 
219 
220 
221 
222 
223 
224 
225 
226 
227 
228 
229 
230 
231 
232 
233 
234 
235 
236 
237 
238 
239 
240 
241 
242 
243 
244 
245 
246 
247 
248 
249 
250 
251 
252 
253 
254 
255 
256 
257 
258 
259 
260 
261 
262 
263 
264 
265 
266 
267 
268 
269 
270 
271 
272 
273 
274 
275 
276 
277 
278 
279 
280 
281 
282 
283 
284 
285 
286 
287 
288 
289 
290 
291 
292 
293 
294 
295 
296 
297 
298 
299 
300 
301 
302 
303 
304 
305 
306 
307 
308 
309 
310 
311 
312 
313 
314 
315 
316 
317 
318 
319 
320 
321 
322 
323 
324 
325 
326 
327 
328 
329 
330 
331 
332 
333 
334 
335 
336 
337 
338 
339 
340 
341 
342 
343 
344 
345 
346 
347 
348 
349 
350 
351 
352 
353 
354 
355 
356 
357 
358 
359 
360 
361 
362 
363 
364 
365 
366 
367 
368 
369 
370 
371 
372 
373 
374 
375 
376 
377 
378 
379 
380 
381 
382 
383 
384 
385 
386 
387 
388 
389 
390 
391 
392 
393 
394 
395 
396 
397 
398 
399 
400 
401 
402 
403 
404 
405 
406 
407 
408 
409 
410 
411 
412 
413 
414 
415 
416 
417 
418 
419 
420 
421 
422 
423 
424 
425 
426 
427 
428 
429 
430 
431 
432 
433 
434 
435 
436 
437 
438 
439 
440 
441 
442 
443 
444 
445 
446 
447 
448 
449 
450 
451 
452 
453 
454 
455 
456 
457 
458 
459 
460 
461 
462 
463 
464 
465 
466 
467 
468 
469 
470 
471 
472 
473 
474 
475 
476 
477 
478 
479 
480 
481 
482 
483 
484 
485 
486 
487 
488 
489 
490 
491 
492 
493 
494 
495 
496 
497 
498 
499 
500 
501 
502 
503 
504 
505 
506 
507 
508 
509 
510 
511 
512 
513 
514 
515 
516 
517 
518 
519 
520 
521 
522 
523 
524 
525 
526 
527 
528 
529 
530 
531 
532 
533 
534 
535 
536 
537 
538 
539 
540 
541 
542 
543 
544 
545 
546 
547 
548 
549 
550 
551 
552 
553 
554 
555 
556 
557 
558 
559 
560 
561 
562 
563 
564 
565 
566 
567 
568 
569 
570 
571 
572 
573 
574 
575 
576 
577 
578 
579 
580 
581 
582 
583 
584 
585 
586 
587 
588 
589 
590 
591 
592 
593 
594 
595 
596 
597 
598 
599 
600 
601 
602 
603 
604 
605 
606 
607 
608 
609 
610 
611 
612 
613 
614 
615 
616 
617 
618 
619 
620 
621 
622 
623 
624 
625 
626 
627 
628 
629 
630 
631 
632 
633 
634 
635 
636 
637 
638 
639 
640 
641 
642 
643 
644 
645 
646 
647 
648 
649 
650 
651 
652 
653 
654 
655 
656 
657 
658 
659 
660 
661 
662 
663 
664 
665 
666 
667 
668 
669 
670 
671 
672 
673 
674 
675 
676 
677 
678 
679 
680 
681 
682 
683 
684 
685 
686 
687 
688 
689 
690 
691 
692 
693 
694 
695 
696 
697 
698 
699 
700 
701 
702 
703 
704 
705 
706 
707 
708 
709 
710 
711 
712 
713 
714 
715 
716 
717 
718 
719 
720 
721 
722 
723 
724 
725 
726 
727 
728 
SCALARS permeability double 1
LOOKUP_TABLE default
100 
100 
100 
100 
100 
100 
100 
100 
100 
100 
100 
100 
100 
100 
100 
100 
100 
100 
100 
100 
100 
100 
100 
100 
100 
100 
100 
100 
100 
100 
100 
100 
100 
100 
100 
100 
100 
100 
100 
100 
100 
100 
100 
100 
100 
100 
100 
100 
100 
100 
100 
100 
100 
100 
100 
100 
100 
100 
100 
100 
100 
100 
100 
100 
100 
100 
100 
100 
100 
100 
100 
100 
100 
100 
100 
100 
100 
100 
100 
100 
100 
100 
100 
100 
100 
100 
100 
100 
100 
100 
100 
100 
100 
100 
100 
100 
100 
100 
100 
100 
100 
100 
100 
100 
100 
100 
100 
100 
100 
100 
100 
100 
100 
100 
100 
100 
100 
100 
100 
100 
100 
100 
100 
100 
100 
100 
100 
100 
100 
100 
100 
100 
100 
100 
100 
100 
100 
100 
100 
100 
100 
100 
100 
100 
100 
100 
100 
100 
100 
100 
100 
100 
100 
100 
100 
100 
100 
100 
100 
100 
100 
100 
100 
100 
100 
100 
100 
100 
100 
100 
100 
100 
100 
100 
100 
100 
100 
100 
100 
100 
100 
100 
100 
100 
100 
100 
100 
100 
100 
100 
100 
100 
100 
1e-08 
100 
100 
100 
100 
100 
100 
100 
1e-08 
1e-08 
1e-08 
100 
100 
100 
100 
100 
100 
100 
1e-08 
100 
100 
100 
100 
100 
100 
100 
100 
100 
100 
100 
100 
100 
100 
100 
100 
100 
100 
100 
100 
100 
100 
100 
100 
100 
100 
100 
100 
100 
100 
100 
100 
100 
100 
100 
100 
100 
100 
100 
100 
100 
100 
100 
100 
100 
100 
100 
100 
100 
100 
100 
100 
100 
1e-08 
100 
100 
100 
100 
100 
100 
100 
1e-08 
1e-08 
1e-08 
100 
100 
100 
100 
100 
1e-08 
1e-08 
1e-08 
1e-08 
1e-08 
100 
100 
100 
100 
100 
1e-08 
1e-08 
1e-08 
100 
100 
100 
100 
100 
100 
100 
1e-08 
100 
100 
100 
100 
100 
100 
100 
100 
100 
100 
100 
100 
100 
100 
100 
100 
100 
100 
100 
100 
100 
100 
100 
100 
100 
100 
100 
100 
100 
100 
100 
100 
100 
100 
100 
100 
100 
100 
100 
100 
100 
100 
100 
1e-08 
1e-08 
1e-08 
100 
100 
100 
100 
100 
1e-08 
1e-08 
1e-08 
1e-08 
1e-08 
100 
100 
100 
100 
1e-08 
1e-08 
1e-08 
1e-08 
1e-08 
100 
100 
100 
100 
1e-08 
1e-08 
1e-08 
1e-08 
1e-08 
100 
100 
100 
100 
100 
1e-08 
1e-08 
1e-08 
100 
100 
100 
100 
100 
100 
100 
100 
100 
100 
100 
100 
100 
100 
100 
100 
100 
100 
100 
100 
100 
100 
100 
100 
100 
100 
100 
100 
100 
100 
100 
100 
100 
100 
100 
100 
100 
100 
100 
100 
100 
100 
100 
1e-08 
100 
100 
100 
100 
100 
100 
100 
1e-08 
1e-08 
1e-08 
100 
100 
100 
100 
100 
1e-08 
1e-08 
1e-08 
1e-08 
1e-08 
100 
100 
100 
100 
100 
1e-08 
1e-08 
1e-08 
100 
100 
100 
100 
100 
100 
100 
1e-08 
100 
100 
100 
100 
100 
100 
100 
100 
100 
100 
100 
100 
100 
100 
100 
100 
100 
100 
100 
100 
100 
100 
100 
100 
100 
100 
100 
100 
100 
100 
100 
100 
100 
100 
100 
100 
100 
100 
100 
100 
100 
100 
100 
100 
100 
100 
100 
100 
100 
100 
100 
100 
100 
1e-08 
100 
100 
100 
100 
100 
100 
100 
1e-08 
1e-08 
1e-08 
100 
100 
100 
100 
100 
100 
100 
1e-08 
100 
100 
100 
100 
100 
100 
100 
100 
100 
100 
100 
100 
100 
100 
100 
100 
100 
100 
100 
100 
100 
100 
100 
100 
100 
100 
100 
100 
100 
100 
100 
100 
100 
100 
100 
100 
100 
100 
100 
100 
100 
100 
100 
100 
100 
100 
100 
100 
100 
100 
100 
100 
100 
100 
100 
100 
100 
100 
100 
100 
100 
100 
100 
100 
100 
100 
100 
100 
100 
100 
100 
100 
100 
100 
100 
100 
100 
100 
100 
100 
100 
100 
100 
100 
100 
100 
100 
100 
100 
100 
100 
100 
100 
100 
100 
100 
100 
100 
100 
100 
100 
100 
100 
100 
100 
100 
100 
100 
100 
100 
100 
100 
100 
100 
100 
100 
100 
100 
100 
100 
100 
100 
100 
100 
100 
100 
100 
100 
100 
100 
100 
100 
100 
100 
100 
100 
100 
100 
100 
100 
100 
100 
100 
100 
100 
100 
100 
100 
100 
100 
100 
100 
100 
100 
100 
100 
100 
100 
100 
100 
100 
100 
100 
100 
100 
100 
100 
100 
100 
100 
100 
100 
100 
100 
100 
100 
100 
100 
100 
100 
100 
100 
100 
100 
100 
100 
100 
100 
100 
100 
100 
100 
100 
SCALARS numerical_p double 1
LOOKUP_TABLE default
10000 
10000 
8506.129062 
7453.39011 
6637.900032 
5990.589562 
5499.416921 
5167.742897 
5000.5 
10000 
9025.358282 
8040.206071 
7180.3941 
6437.520094 
5814.561733 
5330.640808 
5000.5 
4833.257103 
8506.129062 
8040.206071 
7405.58462 
6734.389093 
6071.50248 
5476.879616 
5000.5 
4670.359192 
4501.583079 
7453.39011 
7180.3941 
6734.389093 
6185.222333 
5572.432635 
5000.5 
4524.120384 
4186.438267 
4010.410438 
6637.900032 
6437.520094 
6071.50248 
5572.432635 
5000.5 
4428.567365 
3929.49752 
3563.479906 
3363.099968 
5990.589562 
5814.561733 
5476.879616 
5000.5 
4428.567365 
3815.777667 
3266.610907 
2820.6059 
2547.60989 
5499.416921 
5330.640808 
5000.5 
4524.120384 
3929.49752 
3266.610907 
2595.41538 
1960.793929 
1494.870938 
5167.742897 
5000.5 
4670.359192 
4186.438267 
3563.479906 
2820.6059 
1960.793929 
975.6417179 
1 
5000.5 
4833.257103 
4501.583079 
4010.410438 
3363.099968 
2547.60989 
1494.870938 
1 
1 
10000 
10000 
8530.920067 
7489.137247 
6670.100363 
6010.479559 
5508.694419 
5170.554666 
5000.5 
10000 
9046.379268 
8083.564292 
7236.465132 
6483.242124 
5837.178587 
5338.225385 
5000.5 
4830.445334 
8530.920067 
8083.564292 
7478.732771 
6829.241931 
6136.290962 
5497.333868 
5000.5 
4662.774615 
4492.305581 
7489.137247 
7236.465132 
6829.241931 
6312.468211 
5604.438362 
5000.5 
4503.666132 
4163.821413 
3990.520441 
6670.100363 
6483.242124 
6136.290962 
5604.438362 
5000.5 
4396.561638 
3864.709038 
3517.757876 
3330.899637 
6010.479559 
5837.178587 
5497.333868 
5000.5 
4396.561638 
3688.531789 
3171.758069 
2764.534868 
2511.862753 
5508.694419 
5338.225385 
5000.5 
4503.666132 
3864.709038 
3171.758069 
2522.267229 
1917.435708 
1470.079933 
5170.554666 
5000.5 
4662.774615 
4163.821413 
3517.757876 
2764.534868 
1917.435708 
954.6207322 
1 
5000.5 
4830.445334 
4492.305581 
3990.520441 
3330.899637 
2511.862753 
1470.079933 
1 
1 
10000 
10000 
8575.769732 
7554.810565 
6729.742853 
6045.834865 
5524.795565 
5175.336014 
5000.5 
10000 
9085.78874 
8168.682446 
7353.211096 
6581.897604 
5879.228855 
5351.838496 
5000.5 
4825.663986 
8575.769732 
8168.682446 
7641.199558 
7077.105417 
6331.987006 
5532.654042 
5000.5 
4649.161504 
4476.204435 
7554.810565 
7353.211096 
7077.105417 
6822.226348 
5834.412825 
5000.5 
4468.345958 
4121.771145 
3955.165135 
6729.742853 
6581.897604 
6331.987006 
5834.412825 
5000.5 
4166.587175 
3669.012994 
3419.102396 
3271.257147 
6045.834865 
5879.228855 
5532.654042 
5000.5 
4166.587175 
3178.773652 
2923.894583 
2647.788904 
2446.189435 
5524.795565 
5351.838496 
5000.5 
4468.345958 
3669.012994 
2923.894583 
2359.800442 
1832.317554 
1425.230268 
5175.336014 
5000.5 
4649.161504 
4121.771145 
3419.102396 
2647.788904 
1832.317554 
915.21126 
1 
5000.5 
4825.663986 
4476.204435 
3955.165135 
3271.257147 
2446.189435 
1425.230268 
1 
1 
10000 
10000 
8624.435585 
7626.191894 
6796.070867 
6084.927496 
5542.274029 
5180.329839 
5000.5 
10000 
9130.988279 
8272.561259 
7500.305413 
6713.973692 
5925.969532 
5367.781173 
5000.5 
4820.670161 
8624.435585 
8272.561259 
7876.888852 
7484.76656 
6431.425968 
5486.374525 
5000.5 
4633.218827 
4458.725971 
7626.191894 
7500.305413 
7484.76656 
6882.563213 
5825.324814 
5000.5 
4514.625475 
4075.030468 
3916.072504 
6796.070867 
6713.973692 
6431.425968 
5825.324814 
5000.5 
4175.675186 
3569.574032 
3287.026308 
3204.929133 
6084.927496 
5925.969532 
5486.374525 
5000.5 
4175.675186 
3118.436787 
2516.23344 
2500.694587 
2374.808106 
5542.274029 
5367.781173 
5000.5 
4514.625475 
3569.574032 
2516.23344 
2124.111148 
1728.438741 
1376.564415 
5180.329839 
5000.5 
4633.218827 
4075.030468 
3287.026308 
2500.694587 
1728.438741 
870.0117205 
1 
5000.5 
4820.670161 
4458.725971 
3916.072504 
3204.929133 
2374.808106 
1376.564415 
1 
1 
10000 
10000 
8647.655038 
7655.337041 
6825.5184 
6114.488184 
5553.536074 
5183.03915 
5000.5 
10000 
9155.018419 
8334.066978 
7551.127978 
6765.625043 
6023.531454 
5385.604979 
5000.5 
4817.96085 
8647.655038 
8334.066978 
8105.477915 
7441.590968 
6454.7313 
5544.879231 
5000.5 
4615.395021 
4447.463926 
7655.337041 
7551.127978 
7441.590968 
6708.900354 
5802.546881 
5000.5 
4456.120769 
3977.468546 
3886.511816 
6825.5184 
6765.625043 
6454.7313 
5802.546881 
5000.5 
4198.453119 
3546.2687 
3235.374957 
3175.4816 
6114.488184 
6023.531454 
5544.879231 
5000.5 
4198.453119 
3292.099646 
2559.409032 
2449.872022 
2345.662959 
5553.536074 
5385.604979 
5000.5 
4456.120769 
3546.2687 
2559.409032 
1895.522085 
1666.933022 
1353.344962 
5183.03915 
5000.5 
4615.395021 
3977.468546 
3235.374957 
2449.872022 
1666.933022 
845.9815809 
1 
5000.5 
4817.96085 
4447.463926 
3886.511816 
3175.4816 
2345.662959 
1353.344962 
1 
1 
10000 
10000 
8624.435585 
7626.191894 
6796.070867 
6084.927496 
5542.274029 
5180.329839 
5000.5 
10000 
9130.988279 
8272.561259 
7500.305413 
6713.973692 
5925.969532 
5367.781173 
5000.5 
4820.670161 
8624.435585 
8272.561259 
7876.888852 
7484.76656 
6431.425968 
5486.374525 
5000.5 
4633.218827 
4458.725971 
7626.191894 
7500.305413 
7484.76656 
6882.563213 
5825.324814 
5000.5 
4514.625475 
4075.030468 
3916.072504 
6796.070867 
6713.973692 
6431.425968 
5825.324814 
5000.5 
4175.675186 
3569.574032 
3287.026308 
3204.929133 
6084.927496 
5925.969532 
5486.374525 
5000.5 
4175.675186 
3118.436787 
2516.23344 
2500.694587 
2374.808106 
5542.274029 
5367.781173 
5000.5 
4514.625475 
3569.574032 
2516.23344 
2124.111148 
1728.438741 
1376.564415 
5180.329839 
5000.5 
4633.218827 
4075.030468 
3287.026308 
2500.694587 
1728.438741 
870.0117205 
1 
5000.5 
4820.670161 
4458.725971 
3916.072504 
3204.929133 
2374.808106 
1376.564415 
1 
1 
10000 
10000 
8575.769732 
7554.810565 
6729.742853 
6045.834865 
5524.795565 
5175.336014 
5000.5 
10000 
9085.78874 
8168.682446 
7353.211096 
6581.897604 
5879.228855 
5351.838496 
5000.5 
4825.663986 
8575.769732 
8168.682446 
7641.199558 
7077.105417 
6331.987006 
5532.654042 
5000.5 
4649.161504 
4476.204435 
7554.810565 
7353.211096 
7077.105417 
6822.226348 
5834.412825 
5000.5 
4468.345958 
4121.771145 
3955.165135 
6729.742853 
6581.897604 
6331.987006 
5834.412825 
5000.5 
4166.587175 
3669.012994 
3419.102396 
3271.257147 
6045.834865 
5879.228855 
5532.654042 
5000.5 
4166.587175 
3178.773652 
2923.894583 
2647.788904 
2446.189435 
5524.795565 
5351.838496 
5000.5 
4468.345958 
3669.012994 
2923.894583 
2359.800442 
1832.317554 
1425.230268 
5175.336014 
5000.5 
4649.161504 
4121.771145 
3419.102396 
2647.788904 
1832.317554 
915.21126 
1 
5000.5 
4825.663986 
4476.204435 
3955.165135 
3271.257147 
2446.189435 
1425.230268 
1 
1 
10000 
10000 
8530.920067 
7489.137247 
6670.100363 
6010.479559 
5508.694419 
5170.554666 
5000.5 
10000 
9046.379268 
8083.564292 
7236.465132 
6483.242124 
5837.178587 
5338.225385 
5000.5 
4830.445334 
8530.920067 
8083.564292 
7478.732771 
6829.241931 
6136.290962 
5497.333868 
5000.5 
4662.774615 
4492.305581 
7489.137247 
7236.465132 
6829.241931 
6312.468211 
5604.438362 
5000.5 
4503.666132 
4163.821413 
3990.520441 
6670.100363 
6483.242124 
6136.290962 
5604.438362 
5000.5 
4396.561638 
3864.709038 
3517.757876 
3330.899637 
6010.479559 
5837.178587 
5497.333868 
5000.5 
4396.561638 
3688.531789 
3171.758069 
2764.534868 
2511.862753 
5508.694419 
5338.225385 
5000.5 
4503.666132 
3864.709038 
3171.758069 
2522.267229 
1917.435708 
1470.079933 
5170.554666 
5000.5 
4662.774615 
4163.821413 
3517.757876 
2764.534868 
1917.435708 
954.6207322 
1 
5000.5 
4830.445334 
4492.305581 
3990.520441 